56
 Atoms. Timestep: 0
11   1.911420   0.790960   0.504690
11   4.366560   0.790960   0.504690
11   6.821710   0.790960   0.504690
11   0.683850   2.917180   0.504690
11   3.138990   2.917180   0.504690
11   5.594130   2.917180   0.504690
11  -0.543720   5.043390   0.504690
11   1.911420   5.043390   0.504690
11   4.366560   5.043390   0.504690
11   0.683850   1.499700   2.509390
11   3.138990   1.499700   2.509390
11   5.594130   1.499700   2.509390
11  -0.543720   3.625910   2.509390
11   1.911420   3.625910   2.509390
11   4.366560   3.625910   2.509390
11  -1.771330   5.752190   2.509390
11   0.683810   5.752190   2.509390
11   3.138960   5.752190   2.509390
11   0.683780   0.082220   4.513790
11   3.138990   0.082220   4.513790
11   5.594130   0.082220   4.513790
11  -0.543790   2.208440   4.513790
11   1.911420   2.208440   4.513790
11   4.366560   2.208440   4.513790
11  -1.771370   4.334650   4.513790
11   0.683850   4.334650   4.513790
11   3.138990   4.334650   4.513790
11   1.912010   0.791690   6.503560
11   4.367160   0.791690   6.503570
11   6.822300   0.791720   6.503570
11   0.684460   2.918080   6.503540
11   3.139630   2.918050   6.503630
11   5.594770   2.918020   6.503620
11  -0.543100   5.044250   6.503550
11   1.912010   5.044230   6.503550
11   4.367160   5.044200   6.503590
11   0.680570   1.507600   8.549330
11   3.135710   1.507640   8.549410
11   5.590860   1.507640   8.549370
11  -0.547010   3.633880   8.549290
11   1.908140   3.633920   8.549350
11   4.363300   3.633950   8.549360
11  -1.774660   5.760090   8.549280
11   0.680470   5.760090   8.549240
11   3.135660   5.760160   8.549300
11   0.681060   0.089170  10.524950
11   3.136230   0.089190  10.524970
11   5.591380   0.089170  10.524950
11  -0.546470   2.215480  10.524970
11   1.908680   2.215570  10.524900
11   4.363880   2.215490  10.524980
11  -1.774040   4.341650  10.524970
11   0.681100   4.341660  10.524940
11   3.136250   4.341640  10.525000
1    0.457040   1.104530  11.560540
3    3.215250   2.504010  11.805550
